9
Properties=species:S:1:pos:R:3:forces:R:3 energy=-97195.01189948035 pbc="F F F"
C        0.32528930      -0.20828107      -0.37292856      26.23068692     -14.15197537      33.37017128
C       -1.17217626      -0.14702492      -0.70509080       7.11386431     -62.02519279      22.87512927
O        0.81816897       0.37484311       0.96408684     -33.08606777     -19.73341025     -36.11250810
H        0.67018280      -1.28755968      -0.45732001     -11.10381219      13.68892354      16.60442053
H        0.96513310       0.19732866      -1.19333897     -11.70621771      15.92420939      14.14955404
H       -1.53320064       0.78000217      -1.03660268      -8.55562045      34.48882886     -22.03626292
H       -1.17230691      -0.98649653      -1.44263173     -16.33486810      19.53266990      -7.97685179
H       -1.95714758      -0.50790263       0.04870915      32.07417961       7.12770052      -5.42600811
H        0.13083296       0.08696300       1.62365316      15.26784265       5.20963285     -15.36930819
9
Properties=species:S:1:pos:R:3:forces:R:3 energy=-97197.1953092244 pbc="F F F"
C        0.29242661      -0.40851071      -0.35168505     -30.38154992      66.16821527     -32.54345773
C       -1.29064614       0.05554168      -0.42667348      32.39218183     -40.27836033      36.26793486
O        0.94177988       0.28447702       0.70224395      13.84405052     -22.73402299      10.39814242
H        0.33461723      -1.40097717      -0.04935270      -5.48709498     -52.04767116      13.58314572
H        0.91043705      -0.36799942      -1.31451643     -21.88503314       8.21838590      14.82591410
H       -1.59560041       0.98496510      -0.90834170      12.98682813      11.81656149       5.66966377
H       -1.89655809      -0.69826186      -0.91996912      -0.89280220     -13.03410185      -9.55618598
H       -1.60420647      -0.05024930       0.67529937       4.79837457      16.11002969     -31.01801558
H        0.79597540       1.22142421       0.64489311      -5.35401370      25.73119974      -7.55869846
9
Properties=species:S:1:pos:R:3:forces:R:3 energy=-97195.16477069136 pbc="F F F"
C       -0.29742780      -0.44279117      -0.03983415      -6.20261152     -34.93643025     -14.54250240
C       -0.90021087       0.82797739       0.47974053     -35.15780961      25.62950359     -29.69734933
O        1.10943320      -0.32389278      -0.35585477      -3.26799750      15.82057618      31.95311277
H       -0.54878928      -1.36825567       0.71709775      14.40563922      40.82950269     -41.05710835
H       -0.72715406      -0.52678424      -1.07357369     -12.82459857     -21.75573376      20.01972755
H       -1.90497248       0.57055727       0.91255229      11.28294499       5.10270201      -9.70926058
H       -0.34743257       1.24665073       1.30639242      11.69673991      12.88275677       6.32552319
H       -1.09813297       1.60014798      -0.42090842      15.11177020     -31.02378067      48.32688368
H        1.28621924      -0.97246011      -1.03490996       4.99632461     -12.58271856     -11.70547978
9
Properties=species:S:1:pos:R:3:forces:R:3 energy=-97194.1115408603 pbc="F F F"
C       -0.32976001      -0.54355861      -0.10799420     -19.68168588      81.03476171     -26.70480771
C       -0.92553754       0.86079921       0.51226686      -1.40370656     -52.53286092      10.37759565
O        1.13772381      -0.27457078      -0.36771608     -56.13903845       6.81297286      12.57324075
H       -0.54243190      -1.34462827       0.59487198       6.44884994      -9.60209914       0.83316122
H       -1.01101110      -0.54998076      -1.04218004      34.13300766     -23.31516687      16.07797580
H       -1.84835473       0.71945433       1.15055534      18.72871692      -5.16508025     -12.49525065
H       -0.12976386       1.20189061       1.12947662      17.07708853      16.10149736      21.73177406
H       -1.16515265       1.63267392      -0.20118961       1.66173113       3.51045402     -18.13126937
H        1.59445321      -1.08281403      -0.61199055      -0.75232316     -16.88776306      -4.35596175
9
Properties=species:S:1:pos:R:3:forces:R:3 energy=-97198.46492723332 pbc="F F F"
C       -0.26763675      -0.54214598       0.20092226      -4.68763877       1.81102383     -27.73583596
C       -0.86355659       0.90288690       0.35309108      23.55338028     -33.92592571     -74.30090891
O        0.98831413      -0.28655909      -0.48236755      15.79479471     -22.86742711       4.22507121
H       -0.10565422      -0.93658005       1.22965807      -1.51902215      -7.34598979     -10.47959157
H       -0.84784244      -1.28619023      -0.47508523       6.38866242      24.26755932      28.11148906
H       -1.93812710       0.90122007       0.19291817      -8.10008630       6.06367291      16.97280963
H       -0.40278794       1.23620730       1.24047785      -4.01985715      26.17764811      31.87078732
H       -0.40806938       1.46916283      -0.53834872     -14.31312110     -11.09329667      26.46267404
H        1.49301809      -1.13528289      -0.59449455     -13.04879129      16.89562663       4.87329764
9
Properties=species:S:1:pos:R:3:forces:R:3 energy=-97195.03468333677 pbc="F F F"
C       -0.39707619       0.17454945       0.34057480      28.15207528     -47.75567881      17.59428606
C        0.13755878       1.16812731      -0.68898395      36.27139391     -11.65144938      18.45773474
O        0.24715596      -1.20411482       0.36808805      -2.99265692       9.47116247     -11.59333730
H       -0.29433409       0.51328310       1.43687556       0.38612481      -8.69965540     -34.40373616
H       -1.46079426       0.04780566       0.13512400      -8.18148934      -6.24591886       2.34318522
H        0.84093953       1.92127326      -0.28306051      -1.53738741      -8.30218721      -0.05093778
H        0.60690633       0.73610809      -1.60073075     -11.13794151      -0.60446712       9.78323819
H       -0.76868349       1.64554836      -0.89231015     -30.94468367      35.30378163     -28.51689002
H        0.24421171      -1.75161621      -0.48702075     -10.08159299      38.54076295      26.43038955
9
Properties=species:S:1:pos:R:3:forces:R:3 energy=-97191.07240142216 pbc="F F F"
C       -0.13588987       0.22925243      -0.54714199      22.64939150       0.66414500      -2.11961513
C       -1.11946482      -0.06119007       0.59256602     -27.13303841     -41.88520552     -83.80500156
O        1.15518086      -0.16882898      -0.07333087      22.39881774      30.58863186      39.24917691
H       -0.18715053      -0.28356587      -1.52612561     -18.54029080     -28.11679294      13.29516807
H       -0.24966905       1.22713558      -1.07940267      11.50204137       8.27942664      36.48631637
H       -0.95326490       0.39372287       1.52707831      13.26318336      21.56073544      27.73629717
H       -2.01095738       0.35103530       0.10549543     -21.81675145      -5.13293413      18.23372650
H       -1.21138711      -1.19280891       0.70391907      -0.73800038      29.35305831       1.10583372
H        1.23374669       0.18021937       0.89176663      -1.54655621     -15.31177262     -50.06794011
9
Properties=species:S:1:pos:R:3:forces:R:3 energy=-97198.54640383134 pbc="F F F"
C       -0.30067545       0.07187727      -0.53163383      -3.90042760     -68.65319859       8.28551457
C        0.34658648       1.21773724       0.11673405      42.87126608     -14.12384175      31.88808258
O       -0.05025922      -1.12365718       0.40114359     -13.33547756      33.11466260      -8.59450020
H       -1.38753637       0.23492603      -0.76691542      13.52413428      -9.77253818       5.34594258
H        0.29681616      -0.21664773      -1.41053174     -14.20227000       6.75075604     -10.98583544
H        1.44908013       1.08930283      -0.16634923     -25.44479019      19.00188982      20.73349150
H       -0.08244982       2.10814069      -0.25963166      -3.91714635      33.29799238     -13.56910197
H        0.17770658       1.21417718       1.24161155       7.85712245      -2.01749468     -25.19043453
H       -0.20390266      -1.96233585      -0.06170081      -3.46267297       2.34366949      -7.96034058
9
Properties=species:S:1:pos:R:3:forces:R:3 energy=-97199.39585073308 pbc="F F F"
C        0.17220936       0.21099270       0.51709904     -57.15000420      -6.47227925      31.96741019
C       -1.29769899      -0.00351907       0.01771696      36.01749946      54.41712212      -5.11317141
O        1.01162996      -0.24764355      -0.47441393      60.95542315      35.71725370     -40.61319661
H        0.27203846       1.29412341       0.80209275       4.04663022     -13.83607164      -6.83072933
H        0.40285720      -0.40752470       1.38980002      -6.50760771       2.14749740      16.27262822
H       -2.05402350       0.40919762       0.64323015     -13.90017941      14.95161607      26.00262006
H       -1.30744960       0.63622292      -0.88234991      -8.35914627     -10.12367813      -5.37564431
H       -1.63219062      -0.97529139      -0.18443624       1.92586207     -43.53425114     -12.94054601
H        1.67123836       0.50043488      -0.61070466     -17.05979327     -33.33189110      -3.41749775
9
Properties=species:S:1:pos:R:3:forces:R:3 energy=-97197.35508262877 pbc="F F F"
C       -0.06018953      -0.42857977       0.19789584     -12.60806188     -20.72313741     -19.89012838
C       -1.18782468       0.57961004       0.32444872     -31.05375912      24.58118008     -64.80926885
O        1.17378045      -0.19253097      -0.46992609       5.85209420      35.37434630      -5.75323448
H        0.14789187      -0.81008661       1.16836161       9.53522412      -2.79539869      36.31474737
H       -0.39400709      -1.33284122      -0.31058312     -17.23726572      -4.69291959      -7.64047046
H       -2.13228990       0.06687544       0.53313778       0.63574848      -9.74664141       7.33833376
H       -1.10205212       1.33927929       1.06001563      13.93917446      17.15447906      27.67610966
H       -1.54893045       1.21805196      -0.61257560      28.42580163     -31.69737349      24.91417154
H        1.26799752       0.77364561      -0.60335046       2.56472601      -7.27300379       1.85082830
9
Properties=species:S:1:pos:R:3:forces:R:3 energy=-97187.05824571144 pbc="F F F"
C       -0.25904642       0.02537060      -0.60002301     -40.33416637      -5.69825861      62.72253778
C        0.30466621       1.19009253       0.20170272     -79.92855672      82.80902504     -76.79350214
O       -0.07485058      -1.18149431       0.33224918      20.24959312      39.52267266     -21.66139387
H       -1.39700540       0.20757166      -0.71709846      32.42792538     -11.50171853       6.43695080
H        0.09698622      -0.00059688      -1.62786868      18.51709208     -19.78130659      -2.50797448
H        1.23889583       1.15357582       0.61080910      62.40038469     -22.41080912      38.91480183
H        0.56180580       1.99995961      -0.61758362     -16.55931449     -18.13929437      27.99272826
H       -0.48092250       1.69958852       0.87364546      28.95042460     -20.72629667     -14.23905125
H        0.62377217      -0.79087146       0.95060245     -25.69614801     -24.00928340     -20.82333463
9
Properties=species:S:1:pos:R:3:forces:R:3 energy=-97191.32970557902 pbc="F F F"
C       -0.31022168      -0.12731183      -0.43523102      -4.70541830     -42.76057640      57.43964219
C       -0.85693810       0.44545849       0.82754057     -34.77385478      14.48817222      52.78237391
O        1.07735866      -0.27893370      -0.37196218      31.19719450     -37.76409037      -3.81489676
H       -0.82608459      -1.01071317      -0.74618362      -8.30585380     -24.75897538      -8.75435455
H       -0.50472250       0.61540043      -1.08464897     -18.57056904      59.60385604     -71.72852686
H       -1.92748539       0.75288190       0.78605657      -0.09327658     -19.90258097      -6.44015619
H       -0.67966635       0.10381237       1.90405112       2.54434066      -9.61339871     -35.08978158
H       -0.48173514       1.42967390       0.79459639      26.22907269      39.27339027      12.14537902
H        1.22537367      -1.25600212      -0.42437438       6.56373660      21.41972140       3.40433029
9
Properties=species:S:1:pos:R:3:forces:R:3 energy=-97201.30595612703 pbc="F F F"
C        0.33430946      -0.42422427      -0.07068736      10.16071305      47.77989218      -5.36579754
C        0.82373474       1.06977534       0.20235089     -20.09751011     -13.08179065     -42.23111077
O       -1.05975822      -0.62315583      -0.06830188     -19.96456719       8.23978590     -39.87664903
H        0.83865558      -0.79346675      -0.96588446      -3.03587202      -1.47044322     -13.36222757
H        0.69436961      -1.04252792       0.70477799      15.45855174     -18.06457884      31.10149404
H        0.86962175       1.27267749       1.23109104      10.59397091       2.35729816      41.87136931
H        1.78263392       1.21015306      -0.30104309       8.97654102       0.70005919       5.60043660
H        0.18968326       1.91649193      -0.16203742      -2.96420045     -19.76527965      -7.55902131
H       -1.35337836      -0.36568999      -0.99163731       0.85921942      -6.71688039      29.96046793
9
Properties=species:S:1:pos:R:3:forces:R:3 energy=-97196.9707669068 pbc="F F F"
C        0.05658996       0.58612792       0.13805703      -3.60878335     -42.18752670     -16.12494974
C       -1.19770847      -0.18902550       0.41495681      -5.70393145     -20.84157536      37.25560965
O        1.04711855      -0.31156175      -0.56342091     -25.95926660      49.23453906      12.59314183
H       -0.26983419       1.35319606      -0.52533359      14.93651154      26.81411377     -17.27397780
H        0.30595120       0.94930098       1.13061629      30.26763179      10.70830413       0.25489527
H       -1.62777780       0.19700569       1.39381098      -4.52932946      -9.55791551     -26.58512450
H       -1.88410465      -0.22194922      -0.41734754     -14.10546265       4.34387813      -6.15397724
H       -0.89986705      -1.23802245       0.59026828      -5.03716449      -0.18292969       5.16353521
H        1.35101459      -0.82740439       0.18161091      13.73765006     -18.27899397      10.87931968
9
Properties=species:S:1:pos:R:3:forces:R:3 energy=-97202.33067552497 pbc="F F F"
C        0.10250675      -0.11902379       0.53967556      61.61656339      -8.57974158      38.52046985
C       -1.20309975       0.34592551       0.10218429     -32.60825731      28.89715519     -59.93892293
O        0.96767065      -0.20250292      -0.58351865      -0.85538909       2.88286659     -35.55744548
H        0.66228311       0.55314497       1.30585410     -29.79374160     -17.51553496     -13.53296640
H        0.00172356      -1.14145494       0.94974911       0.64095320       1.88262161      10.71088689
H       -1.97189919       0.41936491       0.82932363     -12.35645040       5.38094819      32.48557625
H       -1.15038038       1.32548587      -0.44326562       2.22537220      -8.78218839      11.81160351
H       -1.69285613      -0.31404046      -0.65118848      14.45646423      -3.17981472       3.39143955
H        1.90471102      -0.33337801      -0.37652538      -3.19807852      -0.92332719      12.23662882
9
Properties=species:S:1:pos:R:3:forces:R:3 energy=-97193.77480233004 pbc="F F F"
C        0.17706304      -0.39354700      -0.40470636     -27.58778852      39.52336447       3.79981529
C       -1.22214166       0.18383929      -0.29088061     -24.43889772       0.88514847     -68.49016191
O        0.99322524       0.21417681       0.60005484      23.66107212       1.60327314      -7.41747688
H       -0.11280820      -1.44776216      -0.46481010      33.24011090     -16.42461899      11.11052275
H        0.62626077      -0.00948724      -1.32332027       4.91494464     -12.09842814      -8.26881888
H       -1.37732339       1.26274902      -0.58376640       6.70161443     -19.09759027      16.38645411
H       -1.89187849      -0.43195794      -0.98475433      13.63309444      17.27752909       5.40107988
H       -1.61352833      -0.12447694       0.62981732     -17.20878619       4.82314138      46.81458593
H        1.05570823      -0.15137650       1.49061839     -12.89315699     -16.59415868       0.84606349
9
Properties=species:S:1:pos:R:3:forces:R:3 energy=-97203.88036010101 pbc="F F F"
C        0.23882529      -0.21235030       0.50177598       2.78541356      12.81532831      -5.21811906
C       -1.12441437       0.51962303       0.41727659      49.40979772      18.84069798     -36.26655124
O        0.76850151      -0.25019943      -0.84418261      17.12357819     -19.76929215       5.82153924
H        1.03459325       0.28908862       1.13646648     -23.05197909      -6.20215031      -1.76583247
H        0.02163292      -1.22662825       0.91761476       8.33693915       4.17265503      -6.23704062
H       -1.64719371       0.23926176       1.25892816     -37.78461408     -11.84248132      49.64893355
H       -1.01917295       1.63451037       0.41089964      -2.08208210     -16.18193186      -5.96954056
H       -1.64984498       0.14236623      -0.47964763       2.48558289       6.26102339       4.11493497
H        1.61304684      -0.77008023      -0.79575199     -17.20502735      11.87515784      -4.02622181
9
Properties=species:S:1:pos:R:3:forces:R:3 energy=-97195.43203807244 pbc="F F F"
C        0.01502043      -0.53936337      -0.23439909      -0.29934179       5.80096940      18.42662633
C       -1.36948482       0.24537796       0.18798287      68.54181710     -46.68221952      21.01293683
O        1.24947064       0.23024854       0.00661747     -21.62511994      -9.09896842      -2.73539566
H        0.10063871      -1.36805424       0.52663445      -5.90866124       6.54600319     -19.21014784
H        0.12524040      -0.98125305      -1.24770318     -12.90311906       7.70497026       3.36628071
H       -1.20044267       0.05584241       1.27669148     -20.98667109      21.45087593      -6.86324443
H       -1.45052420       1.29008060      -0.06721922       4.23058263      12.28240362      -5.44939131
H       -2.24496128      -0.30178065      -0.11344592     -11.84003692      -8.90260954      -8.02931409
H        0.97567024       1.15200101       0.07310047       0.73559288      11.03564579      -0.52639630
9
Properties=species:S:1:pos:R:3:forces:R:3 energy=-97195.72495847866 pbc="F F F"
C       -0.02999439      -0.46044716       0.18516069     -17.45041253      30.42928484      16.02327665
C       -1.20915305       0.54971806       0.33408590      51.22833692      47.21929507       3.06723409
O        1.11665211      -0.10821822      -0.50565914      42.31089958      29.77529332     -16.40326510
H        0.22547406      -0.93501408       1.10755332       4.91575175      -3.66463552      33.96720374
H       -0.49983717      -1.24441955      -0.34589724      -7.71714613     -29.28410786     -28.45854733
H       -1.89790275      -0.09065004       0.83983173     -30.68410171       0.10745408      12.14570186
H       -0.96668949       1.55926307       0.98349327     -13.12784217     -54.60483337     -34.37306590
H       -1.53054066       0.81127720      -0.71084680      -1.67506232       1.62427420      21.51816603
H        1.70926759       0.55207082      -0.03500903     -27.80916788     -21.62309063      -7.36240876
9
Properties=species:S:1:pos:R:3:forces:R:3 energy=-97193.15627093482 pbc="F F F"
C        0.09410134      -0.34571434       0.48295513      15.12961891     109.32035642     -17.13183380
C       -1.12678383       0.56896535       0.29351009       5.32544193      48.90477606     -15.33780775
O        1.00611521      -0.20747209      -0.64819901      16.72825461       1.92129843      21.81564455
H        0.56876874      -0.07493806       1.47597439       7.87015155      -4.54406503     -29.09570480
H       -0.24721824      -1.28559494       0.56102833     -28.89162070     -91.30584160       6.46067990
H       -1.95206930       0.30591884       0.91049838     -15.33547866      -2.54263419      36.51790905
H       -1.04050958       1.75421279       0.24872304      10.03847014     -53.09161320      11.42220644
H       -1.61944086       0.35603625      -0.63543071       0.03677388      -7.34223096     -31.81682610
H        0.62457928      -0.42413304      -1.52412014     -10.92677788      -1.33955037      17.07309909
9
Properties=species:S:1:pos:R:3:forces:R:3 energy=-97186.71833707485 pbc="F F F"
C        0.25085882       0.36352507       0.27002000      50.52914711       5.01788604     -17.45569335
C       -1.08156264      -0.05141002       0.71724549       8.32178850     -58.05696776      78.62449393
O        0.78726063      -0.24859866      -0.89162444     -17.59871365     -25.75633552     -43.61796021
H        0.12798552       1.39118690       0.11419645      10.44753769      55.35844561     -14.99803655
H        1.20627839       0.22179364       0.86242698     -37.30080794       5.15105956      25.12655736
H       -1.13467318       0.43514803       1.80004822      -9.14884796     -29.24098501     -40.17597237
H       -2.01677026       0.19196642       0.17506762      17.08926439       2.56908441      -5.77857780
H       -0.89177232      -1.20439364       0.78197638     -31.78200497      31.38121609      10.61663923
H        0.11022536      -0.81029404      -1.34497576       9.38911374      13.57977891       7.70231832
9
Properties=species:S:1:pos:R:3:forces:R:3 energy=-97198.2511637845 pbc="F F F"
C       -0.37537218      -0.36626449      -0.25833846      12.93116044     -14.36915775     -14.30779416
C       -0.82101529       0.69216408       0.66856376      50.29831301     -56.76028428      82.10845161
O        1.05088747      -0.25537694      -0.38537881      30.20998091     -20.41233001      -7.12057487
H       -0.58724057      -1.38125133       0.10953746     -12.78182162       0.62446275      -3.69519048
H       -0.82578691      -0.14575169      -1.21785810      -9.03843500     -11.23488722     -20.07071398
H       -1.84009712       0.82467807       0.84247060     -46.54039837       0.21009801       1.42242696
H       -0.30479290       0.40610542       1.67532461     -24.79633315       9.90073067     -22.72519087
H       -0.35175147       1.58513736       0.49046122      24.57956586      61.65738021     -24.90679222
H        1.48381527      -1.12017426      -0.67095720     -24.82515859      30.47379132       9.36549995
9
Properties=species:S:1:pos:R:3:forces:R:3 energy=-97193.87067066188 pbc="F F F"
C       -0.35786761       0.41218650      -0.30071627       0.19816612     -37.76593519       2.65233228
C       -0.53322504      -0.05114566       1.21196724      40.87631520      -2.42961542     -55.21524083
O        0.77310457      -0.32026549      -0.84047132     -24.33097528      -1.01284286     -17.00700813
H       -1.21857870      -0.15865431      -0.80776879      15.58877354      37.39812261       4.50797558
H       -0.22310363       1.52671518      -0.54249987     -15.85795701     -28.56024347      10.15291866
H       -1.53396028       0.23790621       1.39677487     -24.25372311      17.63279684      35.23483118
H       -0.57290674      -1.14487224       1.03953243       5.83722027       4.13354468      13.45133276
H        0.36843310       0.22467237       1.84583545     -32.99889964      -0.67336453      -5.33323633
H        1.52569252       0.09422985      -0.44931089      34.90829662      11.38231204      11.58296014
9
Properties=species:S:1:pos:R:3:forces:R:3 energy=-97198.79199125496 pbc="F F F"
C       -0.39267360       0.16838743       0.26170369     -18.50717613      43.95994521      28.31234471
C       -0.41801713       0.32726070      -1.21725030      19.04379048     -22.45333241     -22.10938729
O        0.76406540      -0.41973627       0.84181388      11.60196187      -4.79636832     -16.89484258
H       -0.55771131       1.16395235       0.68434530       2.16798421      10.13031951      13.69694855
H       -1.28770547      -0.38182688       0.50272532     -14.30186765     -14.38038814       9.70760024
H       -1.25120951       0.92904702      -1.66110310       6.11468241     -17.23853404      14.11484821
H        0.49993641       0.67892549      -1.67777255      12.58338731      14.47392092       4.61575966
H       -0.38203342      -0.72921142      -1.46462152     -15.26878812     -10.65265950     -31.18589493
H        0.50970547      -0.90594543       1.64038299      -3.44058116       0.86946974      -0.17037863
9
Properties=species:S:1:pos:R:3:forces:R:3 energy=-97195.18522845027 pbc="F F F"
C        0.16043550      -0.40136900      -0.37243230      14.17828723      -4.71487304     -28.38706025
C       -1.26668184       0.16822879      -0.35123823       4.54561007      20.46772097      22.76706847
O        1.00417648       0.16034984       0.69545588      -1.31034674      11.73229897     -43.28704419
H        0.10142152      -1.54671423      -0.23583209       3.68942540      34.95487853       1.86953255
H        0.60411546      -0.26446095      -1.47313005      -8.64871509      -1.95817884      47.29193518
H       -1.43958701       1.30061461      -0.36662960      22.88785858     -23.17864960      -5.31469580
H       -1.70302276      -0.18851909      -1.30888804     -17.93786221      -8.05124448      20.97869221
H       -1.64199056      -0.07926313       0.69913876     -11.55012220      -7.98513045     -36.01450161
H        1.32054084       1.00966975       0.26943619      -5.80066962     -21.23832869      20.07929243
9
Properties=species:S:1:pos:R:3:forces:R:3 energy=-97194.1405171125 pbc="F F F"
C        0.41365454      -0.02963187      -0.49746742       6.96782311      86.02409904      11.28202257
C       -0.74339542       1.09949329      -0.11990084      27.50661608     -25.13347547       4.71471162
O        0.29702591      -0.93139692       0.56198033      -7.87421017      22.43412314      23.30663454
H        0.22669939      -0.48693752      -1.43537478     -13.98670184     -14.34402197     -30.26278912
H        1.49454016       0.43500575      -0.63712737     -37.99676930     -11.55374268      15.20615621
H       -1.67300412       0.51565772      -0.13055978      -6.84638731       6.45196309     -15.22834027
H       -0.63258262       1.19645648       0.97456920       8.55721162      11.06626994      -2.73966182
H       -0.82173698       2.13017374      -0.59406815       7.68569181     -32.11868608       3.62630922
H        0.61951499      -1.75601365       0.25865516      16.03782774     -42.77095356     -10.01365720
9
Properties=species:S:1:pos:R:3:forces:R:3 energy=-97194.71480192234 pbc="F F F"
C        0.34048687      -0.30703259      -0.30907992      62.92362403      49.43493350     -18.88204518
C       -1.03387549      -0.15831918      -0.67784781     -86.39098920      31.36023117      -3.61639327
O        0.65631418       0.44343908       0.86074287      -3.16600157     -19.28234980      41.42261489
H        0.79916718      -1.23632475      -0.32137964       4.68369545     -67.51655394      17.22642736
H        1.02085623       0.08032997      -1.08601061      -3.94352739      22.14307846      -4.38891499
H       -1.33907231       0.93737278      -0.34347995       7.82124055     -44.10522541     -21.61073028
H       -1.34435364      -0.34643177      -1.74969109      13.31986570       5.97094724      18.99437215
H       -1.65710280      -0.84041552      -0.06781576      -4.51514735       3.49184432      -1.18171380
H        0.36407998      -0.08972971       1.66580687       9.28063786      18.45416039     -27.92470023
9
Properties=species:S:1:pos:R:3:forces:R:3 energy=-97199.06134329166 pbc="F F F"
C       -0.33284690      -0.21895023      -0.36294590     -14.15903184      14.98159452     -41.74868824
C       -0.86425946       0.54457906       0.80274259       3.36275248      29.07471988     -10.62291165
O        1.10018668      -0.31571438      -0.44212746     -20.00628337       0.67904660     -34.26306803
H       -0.89992178      -1.15604118      -0.41306151      12.08798181     -18.97299520       1.92105629
H       -0.76151884       0.29528522      -1.35283462      34.18005077     -14.61509638      37.64855801
H       -1.78342646       0.97059263       0.43058111     -26.22584424      -2.17742973       9.24332621
H       -0.96022575       0.04279593       1.75098419      -3.99165434     -12.32541117      10.07140032
H       -0.29956133       1.45781460       0.95532078      15.55791879       8.29005746       4.90936403
H        1.50482233      -0.48071893       0.40640547      -0.77241565      -4.89112330      22.83920124
9
Properties=species:S:1:pos:R:3:forces:R:3 energy=-97190.54876083057 pbc="F F F"
C        0.14814566      -0.41677441      -0.36222016      49.87054351      13.82624793     -46.22931425
C       -1.23537572       0.15063108      -0.36455730      94.00920643     104.42648894      46.64532296
O        0.97922499       0.16414066       0.68282921     -12.06907232      -3.10662117     -17.43503128
H        0.25390345      -1.48126783      -0.23984761     -11.93186324     -19.16391184       8.98297486
H        0.67429544      -0.26646306      -1.39749181     -15.98656458       1.23612700      29.43077169
H       -1.16364948       1.35800216      -0.26181476       0.54222262     -53.43060035     -10.80783260
H       -1.80483945      -0.01615825      -1.15227588     -65.17431419     -28.57546331     -87.95978482
H       -1.61628683      -0.09422523       0.54139500     -47.03250624     -23.93941054      66.24846529
H        1.06751873       1.06453423       0.33158026       7.85998194       8.92094252      11.10551865
9
Properties=species:S:1:pos:R:3:forces:R:3 energy=-97198.78553158972 pbc="F F F"
C       -0.02679774       0.47246965      -0.31267584      19.90972968      40.00901544      26.16542613